# vtk DataFile Version 5.1
vtk output
ASCII
DATASET POLYDATA
POINTS 13142 float
-68.8253 -67.905 15.8329 -69.4144 -68.1041 15.6269 -69.2628 -67.5827 16.0964 
-69.7278 -67.7141 15.9683 -69.7297 -67.5136 16.5411 -70.0631 -67.8558 16.1798 
-70.2245 -68.0495 16.8167 -70.2897 -68.4238 16.102 -70.5448 -68.833 16.6255 
-70.4015 -69.4038 16.0678 -70.6887 -69.5711 16.8601 -70.5951 -70.5908 16.646 
-70.7353 -70.0993 17.6512 -70.7872 -71.4497 17.7222 -70.6473 -70.5537 18.6322 
-70.7309 -71.5533 18.6614 -70.3799 -70.9532 19.5275 -70.5979 -72.0221 19.0473 
-70.1784 -72.1058 19.7962 -70.5522 -72.7125 18.8536 -70.2665 -73.3906 18.7929 
-70.5747 -73.1471 18.2861 -70.2658 -73.5218 17.8425 -70.5799 -73.0652 17.6659 
-70.1909 -73.2724 17.236 -70.3549 -72.7275 16.9885 -69.694 -72.8645 16.6788 
-69.8297 -72.0583 16.3255 -68.9057 -72.0872 16.1653 -69.0452 -71.0868 15.7489 
-67.9789 -71.1656 15.9533 -68.1701 -70.3815 15.6644 -67.1542 -70.0651 16.2079 
-68.1491 -69.4088 15.6202 -67.5966 -68.804 16.3508 -68.0876 -68.6709 15.7615 
-68.2571 -68.1666 16.0277 -68.6953 -68.5785 15.5207 -69.3979 -68.8149 15.3683 
-69.0495 -69.441 15.333 -69.8038 -69.4784 15.4763 -69.5171 -70.285 15.5006 
-70.1617 -70.2203 15.8269 -70.0263 -71.0977 16.0396 -70.4977 -71.8429 16.81 
-70.7105 -72.4395 17.4676 -70.7496 -72.4521 18.2523 -69.9539 -68.0708 15.7974 
-69.9437 -68.6732 15.6153 -68.7689 -70.1381 15.4279 -68.6981 -67.6301 16.3812 
-69.1892 -67.3808 16.6361 -69.4511 -67.3611 17.1336 -69.8634 -67.5368 17.158 
-69.6749 -67.4691 17.4814 -69.9136 -67.9177 17.7304 -69.2679 -67.5891 17.7453 
-69.2784 -68.0896 18.7099 -68.3362 -67.942 18.0355 -68.2817 -68.1902 19.371 
-67.4311 -68.4507 18.7363 -67.4979 -68.4954 19.9289 -66.749 -68.9548 19.3039 
-66.9199 -68.9133 20.4175 -66.2193 -69.4945 19.8231 -66.47 -69.3975 21.0437 
-65.7052 -70.0773 20.2766 -65.8162 -70.069 21.3589 -65.111 -70.666 20.675 
-65.2346 -70.554 21.8458 -64.3177 -71.3232 21.0983 -64.5296 -71.047 22.2489 
-63.9208 -71.57 21.9784 -64.0592 -71.2796 22.6786 -63.4472 -71.7612 22.6267 
-63.9192 -70.9952 23.4321 -63.1353 -71.5863 23.5515 -63.4428 -70.8284 24.2367 
-62.7953 -71.3894 24.3236 -63.0398 -70.6882 24.8832 -62.6162 -71.1678 24.8188 
-62.5725 -70.8053 25.3298 -62.2717 -71.8865 24.6743 -62.0515 -71.3686 25.5189 
-61.8666 -72.1998 25.1883 -61.6116 -71.9834 25.8777 -61.666 -73.02 25.2263 
-61.281 -73.2467 25.9329 -61.6032 -74.1111 25.2497 -61.2506 -74.4483 25.9292 
-61.6959 -75.2247 25.4273 -61.2341 -75.327 26.2107 -61.701 -75.9498 25.9979 
-61.2412 -75.9187 26.6156 -61.735 -76.5562 26.7138 -60.7983 -76.1104 27.2997 
-60.9176 -76.6686 27.8984 -60.3552 -76.2123 27.8455 -59.8553 -76.2601 28.3651 
-59.8154 -75.6233 27.8295 -58.8791 -75.841 28.7599 -58.7638 -74.9944 28.3296 
-58.1012 -75.3724 28.9471 -57.9069 -74.8598 28.8482 -57.5268 -75.1469 29.2675 
-57.3268 -74.3592 29.2466 -56.9549 -75.1064 29.8063 -56.4384 -74.4833 29.9741 
-56.3974 -75.0375 30.4045 -55.9969 -74.6139 30.7877 -56.2897 -75.1523 31.1435 
-55.8518 -74.6706 31.6974 -56.3138 -75.1217 32.1073 -55.9224 -74.5465 32.8261 
-56.4609 -75.0514 32.9115 -56.5199 -74.8241 33.6397 -56.8824 -75.2455 33.3395 
-57.1468 -75.188 34.0843 -57.4912 -75.7112 33.3729 -57.7398 -75.6045 34.3869 
-58.1448 -76.1287 33.9468 -58.1603 -75.9558 34.6964 -58.5979 -76.5243 34.6666 
-58.2322 -76.0154 35.3723 -58.6198 -76.6153 35.8894 -58.1574 -76.0364 36.0649 
-58.2049 -76.3364 36.7311 -57.8602 -75.8291 36.527 -57.7037 -75.9689 37.2839 
-57.4089 -75.4016 36.7563 -57.0984 -75.4603 37.6844 -56.7951 -74.8441 37.047 
-56.4069 -74.8489 38.0774 -56.1672 -74.2579 37.3315 -55.9218 -74.2687 38.0025 
-55.7132 -73.8764 37.6875 -55.5066 -73.9328 38.3372 -55.2734 -73.4582 37.8938 
-55.0023 -73.5141 38.7249 -54.7031 -72.9958 38.2811 -54.4398 -73.0651 39.1735 
-54.0729 -72.5244 38.6942 -53.8456 -72.5979 39.665 -53.364 -72.0039 39.1402 
-53.2737 -72.1332 40.2082 -52.8026 -71.6402 39.7884 -52.7599 -71.6524 40.7473 
-52.2932 -71.1988 40.2243 -52.2878 -71.1184 41.2244 -51.806 -70.706 40.6559 
-51.8685 -70.581 41.6219 -51.3952 -70.1865 41.1803 -51.5982 -70.0982 42.0247 
-51.1187 -69.5455 42.0044 -51.8331 -69.6999 42.9893 -51.3941 -69.1205 43.0388 
-51.8027 -69.1444 43.5295 -51.8218 -68.5598 44.0382 -52.2327 -69.1642 44.0167 
-52.7675 -68.5248 45.049 -52.7676 -69.3031 44.5519 -53.3697 -69.2572 45.2396 
-53.0408 -69.8818 44.4719 -53.6646 -70.0533 45.07 -53.3218 -70.6574 44.2219 
-53.8184 -70.6386 44.8828 -53.7436 -70.9583 44.5688 -54.1691 -71.1121 44.9054 
-53.7845 -71.4644 44.1177 -54.4703 -71.7641 44.7217 -54.259 -72.1126 44.1221 
-54.6434 -72.2195 44.5455 -54.8571 -72.6976 44.2209 -55.0886 -72.2387 44.9245 
-55.5735 -72.8674 44.8388 -56.0487 -72.3714 45.4382 -56.222 -73.2158 44.9659 
-57.0582 -73.0868 45.4038 -56.8726 -73.7269 44.8398 -57.7632 -73.681 45.1461 
-57.4063 -74.1942 44.5767 -58.2695 -74.1536 44.7012 -57.6515 -74.5981 43.9937 
-58.6888 -74.6248 44.0283 -57.6828 -75.0795 43.1144 -58.5748 -75.1929 43.3304 
-58.0859 -75.4951 42.7512 -58.8484 -75.5546 42.8692 -58.0293 -75.8751 42.0328 
-59.0169 -76.019 42.275 -58.3739 -76.3367 41.5489 -59.2422 -76.4483 41.686 
-58.582 -76.695 40.9262 -59.5708 -76.874 40.9696 -58.725 -77.0511 40.0871 
-59.4524 -77.2818 40.2468 -59.1233 -77.3977 39.7267 -59.782 -77.5125 39.7605 
-59.2281 -77.5226 39.0876 -60.0206 -77.7513 38.9902 -59.3747 -77.618 38.1133 
-60.2381 -78.0214 38.1472 -59.8137 -77.8789 37.0939 -60.6286 -78.3217 37.5025 
-60.4794 -78.3608 36.4878 -61.2263 -78.6207 37.1184 -61.1668 -78.8597 36.0387 
-61.9207 -78.8834 36.8606 -61.8728 -79.1871 36.1485 -62.5079 -79.1279 36.4833 
-62.1908 -79.3979 35.8113 -62.921 -79.4089 35.8074 -62.0592 -79.5864 35.0495 
-62.7304 -79.841 34.8133 -61.7225 -79.8186 33.861 -62.5646 -80.1805 34.0609 
-62.1391 -80.3808 33.1854 -62.9478 -80.4613 33.7675 -62.932 -80.8664 33.0023 
-63.8034 -80.495 33.87 -63.7456 -81.0571 33.1118 -64.5428 -80.7699 33.3752 
-64.1074 -81.4632 32.5759 -64.7798 -81.3117 32.5918 -64.5141 -81.9068 31.8908 
-65.2739 -81.5753 31.8272 -64.8674 -82.2617 31.2641 -65.371 -82.2881 30.7903 
-64.7974 -82.5944 30.5823 -65.3019 -82.6074 29.9676 -64.619 -82.6494 29.8731 
-65.1927 -82.5656 29.2459 -64.6613 -82.4888 29.2551 -64.9779 -82.2972 28.8165 
-64.3699 -82.0093 29.0012 -64.9075 -81.712 28.3695 -63.8611 -80.9952 28.8051 
-64.8722 -80.7767 27.6425 -63.9293 -80.098 28.2557 -64.4015 -79.8752 27.6169 
-63.7887 -79.2923 28.0219 -64.2776 -79.2838 27.2692 -63.7851 -78.8307 27.694 
-63.8117 -78.5272 27.0004 -63.1707 -78.4027 28.0273 -63.063 -77.9644 27.5119 
-62.7072 -77.9529 28.0559 -62.1145 -77.531 28.0176 -62.2573 -78.0081 28.5529 
-61.1741 -77.577 29.0622 -61.6101 -78.2272 29.3013 -60.6325 -77.8289 29.8884 
-60.9736 -78.3066 29.9443 -60.4169 -78.1355 30.4375 -60.9235 -78.7687 30.4404 
-60.1619 -78.3414 31.2194 -60.6643 -79.0198 31.2819 -60.3875 -78.88 32.154 
-61.0055 -79.6169 31.9003 -60.9371 -79.4691 32.8735 -61.4142 -79.9969 32.7523 
-68.11 -67.9884 16.8698 -68.819 -67.516 17.1358 -66.2448 -69.9455 16.8735 
-66.733 -69.292 17.0543 -67.3885 -68.5098 17.5054 -65.7051 -70.7701 16.9571 
-66.192 -70.5785 16.637 -65.7182 -70.3094 17.2124 -66.0462 -69.6872 17.619 
-66.6468 -69.0315 18.1299 -66.9641 -71.1843 16.2857 -67.8888 -72.0838 16.2534 
-68.8627 -72.8528 16.5331 -69.5848 -73.5182 17.1586 -66.0816 -71.4627 16.7454 
-65.3094 -70.9396 17.5013 -65.2564 -72.0059 17.2607 -64.5513 -71.4683 18.1406 
-64.3507 -72.2816 17.7477 -63.9347 -71.9681 18.3045 -63.7015 -72.5962 18.1888 
-63.5359 -72.2132 18.7174 -63.1707 -72.9338 18.8779 -63.3138 -72.2577 19.4899 
-62.8701 -72.8431 19.5573 -62.9009 -72.6288 20.2483 -62.6297 -73.1633 19.9759 
-62.5501 -73.2114 20.6267 -62.4886 -73.8304 20.23 -62.4005 -73.7658 21.0054 
-62.4275 -74.5735 21.0135 -62.3548 -73.9982 21.8466 -62.3974 -75.0745 22.1864 
-62.2491 -74.1774 22.8955 -62.2781 -75.0863 23.1729 -62.0953 -74.4655 23.8233 
-62.2677 -75.5791 24.0305 -61.9233 -74.8279 24.6207 -62.0762 -75.6431 24.8434 
-62.0263 -75.972 25.3692 -62.1194 -76.411 25.7861 -62.5379 -76.9627 25.9964 
-62.3117 -77.0481 26.7493 -62.8159 -77.5135 26.8537 -61.9549 -77.0845 27.3856 
-61.5444 -77.1078 27.9812 -61.0253 -77.1162 28.5451 -59.8754 -76.6814 28.9875 
-59.3296 -76.297 28.8759 -58.8014 -76.2734 29.3926 -57.7723 -75.7321 29.67 
-58.1761 -76.275 30.1866 -57.4742 -75.9684 30.6434 -57.8828 -76.2803 30.7329 
-57.6784 -76.1886 31.2949 -58.4612 -76.6227 30.8028 -58.1807 -76.5211 31.8225 
-58.8259 -77.0015 31.3907 -58.6754 -76.9189 32.3016 -59.2094 -77.4157 31.871 
-59.1356 -77.3576 32.9105 -59.5403 -77.864 32.3591 -59.5806 -77.8988 33.0064 
-60.0084 -78.415 32.9449 -59.7866 -78.1061 33.3736 -60.0888 -78.3374 34.0548 
-59.5492 -77.7756 33.6309 -59.6656 -77.7906 34.6483 -59.0913 -77.1824 33.9848 
-59.1667 -77.2086 35.2102 -66.9994 -71.8926 16.4015 -67.5306 -72.4724 16.4402 
-68.1807 -72.8192 16.4955 -67.886 -73.2087 16.7302 -68.7357 -73.347 16.7947 
-68.991 -74.0707 17.2895 -69.8583 -74.0183 17.9958 -70.4915 -68.8751 17.5265 
-70.4304 -69.3983 18.5458 -70.0735 -68.5385 18.4141 -69.8182 -68.7781 19.3014 
-69.0038 -68.3904 19.9464 -68.1848 -68.3382 20.5083 -67.5355 -68.5294 20.9047 
-67.1048 -68.8278 21.2067 -67.057 -68.9442 21.8031 -66.3794 -69.5401 22.121 
-67.1192 -68.9862 22.5136 -66.3823 -69.4155 23.2234 -67.288 -69.0193 23.0622 
-67.163 -69.24 23.7805 -67.8366 -69.118 23.0715 -67.8284 -69.4902 23.5901 
-68.3462 -69.761 22.9626 -68.0795 -70.1484 23.8074 -68.4886 -70.9591 23.2384 
-68.2102 -70.9615 24.0732 -68.378 -72.0541 24.0056 -68.1361 -71.3848 24.6486 
-68.177 -72.0971 24.9296 -67.938 -71.4719 25.5484 -68.0911 -72.4936 25.5425 
-67.8891 -72.5713 26.4435 -68.0991 -73.1999 25.8246 -67.995 -73.6201 26.4105 
-68.1878 -74.1541 25.6839 -67.9919 -74.5045 26.6212 -68.1958 -75.2508 25.9024 
-68.0071 -75.5122 26.7148 -68.2134 -76.2353 25.9415 -68.0325 -76.4714 26.6543 
-68.2228 -77.1461 25.8973 -68.0695 -77.2529 26.4665 -68.1908 -77.822 25.9339 
-68.0218 -78.0015 26.4546 -68.2104 -78.6801 25.6383 -67.981 -79.2247 26.1359 
-68.217 -79.5687 25.3108 -68.0787 -80.4239 25.1599 -68.3239 -80.1235 24.7558 
[...]
CELL_DATA 26280
FIELD FieldData 1
GradSpeedImg 3 26280 float
-0.0368151 0.138608 0.0780386 0.0126101 0.141933 0.0519026 0.0624191 0.125178 0.00736949 
0.118766 0.133429 -0.0325624 0.152709 0.105805 -0.0896714 0.13994 0.122827 -0.077002 
0.118471 0.0916067 -0.0924188 0.0590876 0.0913302 -0.080214 0.0385517 0.0526346 -0.0933975 
-0.00386768 0.0295183 -0.106939 -0.00855263 0.00649957 -0.0843429 -0.0484669 -0.00755837 -0.0712323 
-0.0629455 -0.00251161 -0.0195465 -0.099503 -0.00726872 0.000753407 -0.104634 0.00229272 0.03115 
-0.118539 -0.00225093 0.0341942 -0.100779 0.00102919 0.0344824 -0.106427 -0.00609946 0.0254195 
-0.0820633 -0.00590374 0.010234 -0.0958349 -0.0147589 -0.00826587 -0.0776654 -0.0169347 -0.0392197 
-0.100358 -0.027922 -0.0658469 -0.0918003 -0.0305577 -0.100898 -0.108234 -0.0353112 -0.122468 
-0.0878945 -0.0321936 -0.14218 -0.0806004 -0.0347465 -0.167025 -0.043468 -0.0403563 -0.200844 
-0.0250088 -0.0479242 -0.224113 0.00824081 -0.0563273 -0.249908 0.0158089 -0.0587262 -0.231476 
0.0332124 -0.0293947 -0.206141 0.028738 -0.00514523 -0.145881 0.0160353 0.058986 -0.0758974 
-0.00198181 0.0808291 -0.0333662 -0.0260774 0.135616 0.0304109 -0.0287585 0.116056 0.0194813 
-0.0518989 0.132153 0.0614521 -0.0383895 0.120535 0.0486923 -0.021008 0.0843752 -0.0146383 
-0.0219053 0.0259859 -0.0758612 -0.0229909 0.00377358 -0.121195 -0.0229261 -0.0279832 -0.156249 
-0.0360471 -0.0129808 -0.167319 -0.0530647 -0.0222648 -0.191909 -0.0588441 -0.00688086 -0.173299 
-0.0722072 -0.0188773 -0.164017 -0.074377 -0.0194468 -0.10657 -0.103011 -0.0300566 -0.0970051 
-0.114016 -0.0284969 -0.0554154 -0.126422 -0.0347322 -0.0695651 -0.122724 -0.0295162 -0.0457117 
0.0467386 0.158009 0.0290422 0.101523 0.163912 -0.00100339 0.0292549 0.143173 -0.000477624 
-0.00670036 0.0973843 -0.0300629 -0.0109237 0.0547516 -0.0948563 0.0662943 0.14344 -0.0323413 
0.0369427 0.109236 -0.0696362 -0.00466291 0.061269 -0.0442958 -0.00792907 0.0148771 -0.0843191 
0.00234419 -0.0383764 -0.140248 0.0154876 -0.0449787 -0.157539 0.00788385 -0.0649815 -0.195588 
-0.00431998 0.0663359 -0.102566 -0.0295081 0.0303603 -0.139974 -0.0343894 0.0245598 -0.134185 
-0.0115672 -0.0590245 -0.166844 -0.00768749 -0.0638072 -0.194688 -0.036064 -0.04205 -0.208682 
-0.0509278 -0.0372483 -0.21655 -0.0812916 -0.0294596 -0.190495 -0.092505 -0.0345256 -0.164238 
-0.112054 -0.0345531 -0.128195 -0.12049 -0.0378915 -0.11127 0.00223809 0.101955 0.0437625 
0.0561796 0.0930416 -0.0081614 0.111568 0.0634796 -0.0748602 0.158454 0.0602883 -0.130875 
0.169434 0.0495246 -0.146724 0.178964 0.0553499 -0.149713 0.164473 0.0516772 -0.119693 
0.162467 0.0469774 -0.104793 0.130884 0.0525656 -0.063278 0.12387 0.0514286 -0.0343265 
0.0845769 0.0693974 0.0105435 0.0785505 0.0590885 0.0170675 0.0419792 0.085274 0.0341513 
0.0233789 0.0752344 0.0314786 0.010523 0.095354 0.0361651 0.0071836 0.0755101 0.0233507 
0.0199008 0.0920009 0.0177817 0.00887396 0.0806708 0.00837407 0.015459 0.0978157 0.013297 
0.0123579 0.0795624 0.00453534 0.0227749 0.100394 0.0161047 0.0232848 0.0905584 0.00976488 
0.021007 0.110574 0.0177129 0.0215694 0.0961548 0.00593428 0.0118674 0.113114 0.00679314 
0.0216062 0.0999682 -0.0100391 0.0191546 0.116578 -0.0210018 0.036019 0.104275 -0.0450435 
0.034768 0.124337 -0.0543064 0.0517817 0.113662 -0.0693604 0.0543072 0.129331 -0.0725097 
0.0649659 0.122915 -0.0774552 0.0507334 0.129917 -0.0617671 0.0481048 0.128932 -0.0549806 
0.0295197 0.122652 -0.0352757 0.0205852 0.1059 -0.0240818 -0.0110577 0.0697622 0.00486037 
-0.0369893 0.0358407 0.0314841 -0.0660324 0.00275619 0.0544334 -0.0768845 -0.0226066 0.0710362 
-0.0734096 -0.0403506 0.0706899 -0.0457546 -0.0626681 0.0602444 -0.0103977 -0.073977 0.038335 
0.0303589 -0.0897011 0.00878099 0.0609793 -0.0853757 -0.0196368 0.0837297 -0.0938328 -0.0503774 
0.104942 -0.0933126 -0.081946 0.112186 -0.106901 -0.102951 0.117701 -0.110487 -0.117989 
0.0953092 -0.121535 -0.0988268 0.0860376 -0.130572 -0.0965756 0.0462438 -0.124312 -0.0573624 
0.0404367 -0.132407 -0.0636206 0.0151753 -0.12301 -0.0408966 0.0270242 -0.133177 -0.0646072 
0.0105487 -0.10552 -0.0446517 0.023201 -0.107196 -0.0625939 0.0332716 -0.0949316 -0.0606605 
0.0619143 -0.108381 -0.0834737 0.0726438 -0.0998598 -0.0762058 0.0723625 -0.0971536 -0.0716509 
0.0597184 -0.0821943 -0.053366 0.0360363 -0.0597892 -0.0365954 0.0140521 -0.0398869 -0.0198889 
-0.0123005 -0.0156098 -0.01124 -0.0268863 -0.0018421 -0.0100927 -0.0455216 0.0160568 -0.013433 
-0.0536702 0.0315396 -0.0220142 -0.0576659 0.0495737 -0.0291531 -0.054586 0.0669243 -0.0407274 
-0.0474374 0.0798433 -0.0433647 -0.0449181 0.0843973 -0.0442996 -0.0316325 0.0728086 -0.0365899 
-0.0315778 0.0638006 -0.0305685 -0.016345 0.0394047 -0.0215697 -0.0206004 0.0364029 -0.0167416 
-0.00838174 0.0167635 -0.0110141 -0.0158621 0.0232936 -0.0109311 -0.00607644 0.0103579 -0.00918475 
-0.0138335 0.0187864 -0.0103513 -0.00582935 0.00815324 -0.00941439 -0.0117833 0.0165254 -0.0109102 
-0.000466423 0.00643805 -0.0106249 -0.00279829 0.0158483 -0.0131807 0.00494846 0.00989511 -0.0135904 
0.00305415 0.0178281 -0.0163179 0.0122263 0.00932616 -0.0170073 0.0110175 0.0156599 -0.0191957 
0.0199808 0.00744436 -0.019337 0.0167469 0.0125854 -0.0215347 0.0296727 -0.00427074 -0.021176 
0.026573 -0.004418 -0.0230273 0.0416659 -0.0247311 -0.0212257 0.0377224 -0.0269202 -0.0224889 
0.0523041 -0.0476994 -0.0194053 0.0512072 -0.0519838 -0.0195685 0.0628883 -0.065386 -0.0143999 
0.0604102 -0.0653604 -0.0138062 0.0604427 -0.0659482 -0.00686845 0.0544392 -0.06156 -0.00622753 
0.0493507 -0.0554258 0.0011053 0.0427991 -0.0485812 0.00185049 0.0339232 -0.0375087 0.0078696 
0.0206398 -0.0228612 0.00635381 0.0103146 -0.0110754 0.00759278 0.000405656 -0.000849062 0.00416834 
-0.00149161 0.00115818 0.00565041 -0.0061327 0.00492132 -0.000807291 -0.00406767 0.00251599 -0.00106828 
-0.00127027 -0.00120917 -0.00263207 0.00697017 -0.00834446 0.00873615 0.0169241 -0.0166349 0.0205295 
0.0243862 -0.0213021 0.0318221 0.0344586 -0.0291228 0.0433814 0.0411431 -0.0342185 0.0484022 
0.0514315 -0.043087 0.0593625 0.0580839 -0.0487319 0.0661564 0.0619346 -0.0519121 0.0745139 
0.0646463 -0.0559007 0.0719586 0.0686469 -0.0609006 0.0771617 0.0730402 -0.0670067 0.075248 
0.0786279 -0.0743645 0.0870772 0.0769412 -0.0784544 0.083127 0.0733738 -0.0789232 0.0906421 
0.0687804 -0.0815891 0.0936893 0.0597084 -0.0788218 0.102268 0.0554938 -0.0862372 0.106027 
0.0401585 -0.0848352 0.109745 0.0375929 -0.0955375 0.111686 0.0235446 -0.100746 0.118142 
0.0246199 -0.109746 0.117589 0.00979515 -0.108178 0.118537 0.0142552 -0.102237 0.102782 
0.00372435 -0.0892933 0.0867027 0.0137612 -0.0777697 0.0655924 0.00771306 -0.0702508 0.0630328 
0.0178825 -0.073132 0.0605775 0.0124408 -0.072652 0.0624923 0.0217872 -0.0764826 0.0542465 
0.0153381 -0.0702485 0.051408 0.0298246 -0.0849123 0.0519771 0.0237627 -0.087359 0.0568102 
0.0384099 -0.101003 0.0533621 0.025666 -0.0885333 0.0446371 0.0365569 -0.0920039 0.0341453 
0.0302204 -0.0902683 0.0340622 0.0428079 -0.104947 0.0348416 0.035123 -0.100552 0.036641 
0.0394593 -0.0985083 0.0294046 0.0267655 -0.074775 0.0228144 0.0294939 -0.0675089 0.0149901 
0.0193726 -0.0518448 0.0125177 0.0216981 -0.051989 0.00978497 0.0178507 -0.0508564 0.0127722 
0.0229682 -0.0562649 0.0128299 0.0197527 -0.0628291 0.0170555 0.0201887 -0.0708698 0.0181548 
0.00950663 -0.0724276 0.0208782 0.0114016 -0.0821151 0.0259707 -0.000814325 -0.0860206 0.0325709 
0.00516118 -0.099284 0.0401737 -0.00205233 -0.0971154 0.041227 0.0117028 -0.1021 0.0431824 
0.0105713 -0.0968588 0.0423615 0.0321977 -0.108811 0.0429386 0.0350686 -0.110618 0.0455902 
0.05275 -0.123357 0.0480024 0.0411604 -0.120458 0.055178 0.0412079 -0.121847 0.0545632 
0.0132429 -0.117606 0.060016 0.00418179 -0.121697 0.0629119 -0.0330599 -0.127057 0.0760111 
-0.0321311 -0.131147 0.0797554 -0.0555087 -0.133894 0.0863325 -0.0424664 -0.133347 0.0762858 
-0.0682038 -0.131189 0.0729598 -0.0568996 -0.12898 0.0505602 -0.067153 -0.125594 0.0343929 
-0.0406007 -0.124639 0.00657669 -0.033732 -0.113365 -0.0164549 -0.00206961 -0.102532 -0.0493346 
0.00960002 -0.0913956 -0.07069 0.0342565 -0.0920016 -0.0931354 0.0419808 -0.0867641 -0.0912484 
0.0572059 -0.0917559 -0.101861 0.0587858 -0.0873733 -0.0808189 0.0557948 -0.0951958 -0.0778234 
0.0370154 -0.0759268 -0.0346606 0.0164889 -0.0648962 -0.0264264 -0.00176502 -0.0301354 0.00467391 
-0.0289093 -0.0114245 -0.0011206 -0.0459297 0.0176006 0.0165784 -0.0749777 0.0313338 0.0162821 
-0.0724255 0.0421656 0.0155361 -0.0665233 0.0420087 0.00476277 -0.0375412 0.0390116 -0.00505909 
-0.0183775 0.031912 -0.0127266 0.0146957 0.0144372 -0.0332119 0.0295618 -0.000680701 -0.0447842 
0.0627454 -0.0244577 -0.0704096 0.0674291 -0.0357364 -0.0788156 0.086335 -0.0498695 -0.101574 
0.0869473 -0.0534497 -0.106133 0.0903241 -0.0561666 -0.115453 0.0944054 -0.0621903 -0.121794 
0.0824863 -0.0522372 -0.110005 0.0771027 -0.051766 -0.099123 0.0602115 -0.0416594 -0.0656452 
0.0618276 -0.0548207 -0.0495166 0.0615207 -0.0666759 -0.016571 0.0714424 -0.0926492 -0.00164106 
0.0690614 -0.110749 0.0225798 0.0673046 -0.12357 0.0349933 -0.0409476 0.130766 0.0854294 
-0.0528937 0.144731 0.0883028 -0.0313733 0.14245 0.0500591 -0.0350492 0.135469 0.0659802 
0.00916745 0.0908683 0.0274434 0.0345086 0.0713191 0.00809922 0.092466 0.0472514 -0.0561041 
0.109908 0.156755 -0.0275024 0.0431761 0.111691 -0.0480975 0.0178827 0.113385 -0.0269557 
0.00742846 0.147057 0.0380175 -0.00793221 0.130664 0.0385416 0.0242957 0.111028 0.0287852 
0.0450713 0.0782141 0.00176586 0.102808 0.051801 -0.0435735 0.124862 0.0403874 -0.0820993 
0.154943 0.0458519 -0.116704 0.0679409 0.0933011 -0.0874283 0.06587 0.105443 -0.0696174 
0.0615434 0.142984 -0.020186 0.0481505 0.155225 0.00787839 0.0460002 0.165714 0.0372322 
0.0305716 0.155851 0.0462295 0.0376282 0.130372 0.0476936 0.046713 0.101942 0.0297252 
0.0604295 0.0726139 -0.103208 0.0592176 0.012653 -0.161495 0.0445912 -0.0269187 -0.215586 
0.043179 -0.0652818 -0.24781 0.0242321 -0.0653589 -0.256796 0.013547 -0.0530372 -0.209249 
-0.0209035 -0.0364377 -0.179092 -0.0396708 -0.0203573 -0.132879 -0.0695293 -0.021723 -0.129786 
-0.0700727 -0.0183483 -0.105544 0.0638387 0.050823 -0.121735 0.0471285 0.0674486 -0.0975743 
0.0341103 0.0491156 -0.112373 0.0201466 0.0852014 -0.0633855 0.0285253 0.0698115 -0.0786269 
0.0308004 0.0889332 -0.0466782 0.0531777 0.0704107 -0.0767443 0.0543188 0.0847218 -0.0553975 
0.0664343 0.0701021 -0.0569251 0.0527966 0.092301 -0.0240064 0.0603922 0.0858364 -0.0208235 
0.0511675 0.110661 -0.000102325 0.0723924 0.0896869 -0.00897014 0.0778735 0.0869697 -0.00113792 
0.105781 0.0486782 -0.0138864 0.109355 0.0383947 -0.0072238 0.124265 0.00600389 -0.0108945 
0.107075 0.00829558 -0.000377388 0.103831 -0.00989438 -0.00210944 0.0716859 0.00304396 0.0031589 
0.0616113 -0.0077642 0.00443471 0.026447 -0.00160851 0.0116341 0.0181406 -0.0199856 0.021599 
-0.0164511 -0.023666 0.0344803 -0.0140274 -0.040959 0.0450093 -0.037726 -0.0451287 0.0546269 
-0.00954871 -0.0548385 0.0516584 3.69865e-05 -0.0630575 0.0394766 0.041748 -0.0720027 0.0233342 
0.0619337 -0.0785968 -0.00622521 0.076209 -0.0683129 -0.0127657 0.0779574 -0.0531297 -0.0309615 
0.061666 -0.025408 -0.0257985 0.0671314 -0.0227872 -0.0457204 0.063306 -0.0165305 -0.0545968 
0.0819303 -0.0362665 -0.0761755 0.0892011 -0.0433042 -0.0911407 0.111536 -0.0710027 -0.109049 
0.124327 -0.0863314 -0.124073 0.125581 -0.104241 -0.128424 0.118921 -0.1093 -0.131479 
0.101769 -0.124582 -0.118793 0.0940846 -0.117818 -0.119283 0.0762491 -0.123748 -0.112379 
0.0709047 -0.100834 -0.114986 0.056115 -0.0961057 -0.101703 0.051222 -0.0675485 -0.0936953 
0.0344216 -0.0447456 -0.0727454 0.0357337 -0.0182614 -0.0714473 0.0205945 0.0190397 -0.055013 
0.0278284 0.0343266 -0.0567886 0.0118063 0.0612089 -0.0388256 0.0189917 0.0548577 -0.0393456 
0.00910192 0.0597885 -0.027961 0.0175976 0.0373405 -0.0275898 0.0211924 0.0243598 -0.0195503 
0.0343391 -0.00238956 -0.0145451 0.0392287 -0.0121979 -0.00732237 0.0482215 -0.0333019 -0.000194326 
0.0437632 -0.0261686 -0.00120989 0.0419833 -0.0294642 -0.000278904 0.0267692 0.000333855 -0.00867923 
0.0229986 0.000221412 -0.00804511 0.00616834 0.0255423 -0.0171322 0.002886 0.0174816 -0.0154247 
0.060556 0.00300424 -0.162211 0.0540095 -0.0413848 -0.192575 0.0512589 -0.0700991 -0.224083 
0.0475041 -0.0763248 -0.219183 0.0389453 -0.0667942 -0.204651 0.0296173 -0.0492732 -0.171679 
0.00916168 -0.0287975 -0.139319 -0.00661076 -0.000752449 -0.108657 -0.0303457 0.00741783 -0.0964061 
-0.0287015 0.0163733 -0.0775946 -0.043531 -0.00119561 -0.0767964 -0.0425661 -0.00241775 -0.0455228 
0.00389143 -0.0292118 -0.140065 -0.0247796 -0.0130186 -0.11778 0.0234507 -0.05315 -0.18532 
0.167226 0.0719981 -0.136537 0.180771 0.0626688 -0.151805 0.142827 0.0586768 -0.111751 
0.112788 0.0594439 -0.0974121 0.0666943 0.0412152 -0.0799855 0.0319083 0.0230372 -0.0621964 
0.0205889 0.0262715 -0.0327799 0.0677696 0.0409967 -0.0405326 0.0679276 0.0423567 -0.0277338 
0.121527 0.0453325 -0.0575845 0.157594 0.0408684 -0.0767321 0.173875 0.0386906 -0.0706132 
0.178167 0.0289216 -0.0694394 0.122135 0.0313507 -0.0266286 0.118022 0.0297268 -0.0457404 
0.0558373 0.0474249 -0.00471699 0.0509037 0.0482486 -0.00982954 0.0151058 0.0562141 0.0135516 
0.0479782 0.0479237 -0.00779816 0.03918 0.0475267 -0.0109515 0.0804252 0.0393157 -0.0389279 
0.0727453 0.0398087 -0.0443701 0.116348 0.0362763 -0.0742051 0.122256 0.0343078 -0.0891981 
0.151018 0.0363827 -0.102289 0.136743 0.0395342 -0.0891775 0.113405 0.0443961 -0.0653864 
0.0903578 0.042456 -0.0499696 0.078494 0.0320424 -0.0431441 0.0709392 0.025552 -0.0328988 
0.0751944 0.00853802 -0.030385 0.0646198 0.00879298 -0.0194426 0.0618178 0.00015372 -0.0145049 
0.0299711 0.00781022 -0.00505189 0.0285141 0.0011146 -0.00212628 0.013144 0.000260621 -0.000178642 
0.0328774 -0.0081784 -0.00173385 0.0357551 -0.00887031 -0.00370238 0.0671741 -0.0101187 -0.00902808 
0.0660764 -0.00601983 -0.0120506 0.0765035 -0.000822331 -0.0148919 0.0569952 0.00585694 -0.0140755 
0.0508209 0.0112387 -0.0118792 0.0287742 0.0130645 -0.00878867 0.0131453 0.0133877 -0.00312158 
-0.00315292 0.0108261 2.83891e-05 -0.0169019 0.00650034 0.00497308 -0.0238015 0.00254971 0.00548045 
-0.0345987 -0.00618657 0.00955865 -0.0367135 -0.0156178 0.00924174 -0.0464629 -0.0299941 0.0144102 
-0.0489382 -0.0500756 0.0173373 -0.0622959 -0.0615304 0.0248317 -0.072809 -0.0762872 0.0316606 
-0.0856958 -0.0717194 0.0366434 -0.0934014 -0.0846198 0.0447161 -0.0970298 -0.0871106 0.0476708 
-0.09399 -0.106935 0.0545074 -0.0889706 -0.117177 0.0560195 -0.0642794 -0.128987 0.058923 
-0.0574994 -0.134376 0.0567575 -0.01717 -0.122152 0.048143 -0.0300285 -0.12513 0.0413968 
-0.00846096 -0.127404 0.0352419 -0.0328357 -0.147476 0.0251813 0.0100494 -0.146416 0.0181678 
0.0188228 -0.149522 -0.0125146 0.0629523 -0.145036 -0.0177591 0.0630325 -0.149283 -0.0437713 
0.0873239 -0.143332 -0.0229692 0.0865426 -0.142433 -0.0503336 0.0972858 -0.140136 -0.0392131 
0.104791 -0.130021 -0.084111 0.11111 -0.119911 -0.0615284 0.129654 -0.0963846 -0.0785132 
0.144284 -0.0925606 -0.0315689 0.172557 -0.0799192 -0.0377167 0.1908 -0.0888571 -0.00599305 
0.187921 -0.076708 -0.0121572 0.170352 -0.0793087 0.00930482 0.139425 -0.0682808 0.00579548 
0.114725 -0.070287 0.0155442 0.0987662 -0.0622494 0.012486 0.0845231 -0.0581474 0.0174472 
0.0917189 -0.0502222 0.0135219 0.0849255 -0.0474093 0.017159 0.0910315 -0.0458577 0.0112223 
0.0747742 -0.0480689 0.0152755 0.0709269 -0.045874 0.00982021 0.0522658 -0.0492343 0.0193207 
0.0381402 -0.0466204 0.0236096 0.0290745 -0.0545307 0.0360942 0.0183233 -0.053579 0.0423727 
0.0215752 -0.0581687 0.0445335 0.0409449 0.132974 -0.0172364 0.0533284 0.153889 0.00803464 
0.0534368 0.161249 0.0354773 0.0595014 0.160833 0.0366105 0.0453654 0.144611 0.0435099 
0.0389208 0.124013 0.0455957 0.0512307 0.109927 -0.063268 0.0369365 0.00893174 -0.160557 
0.0279386 0.00356747 -0.205613 0.0263908 -0.0190891 -0.233249 0.0190591 -0.0151039 -0.264473 
0.00505118 -0.00915446 -0.224661 -0.0106416 0.00465972 -0.214234 -0.0291295 0.0128576 -0.154204 
-0.0524148 0.00625688 -0.150239 -0.0751821 0.00115246 -0.116478 -0.106752 -0.014256 -0.124104 
-0.112389 -0.0129107 -0.0897051 -0.12863 -0.0179687 -0.0781672 -0.1242 -0.0104706 -0.0355207 
-0.135815 -0.0132371 -0.0256249 -0.121392 -0.0052787 -0.00169911 -0.11805 -0.00727651 0.00323865 
-0.0929899 -0.000338001 0.014044 -0.0890262 -0.00450657 0.0136112 -0.0602362 0.00186663 0.0130261 
-0.0609067 -0.00213662 0.0115428 -0.0348308 0.00553397 0.00754076 -0.0409175 0.00173125 0.00704744 
-0.0187186 0.0102739 0.00391975 -0.0303828 0.00411967 0.00592762 -0.015106 0.0102431 0.00450261 
-0.0288328 0.00190648 0.00815353 -0.0170173 0.00671583 0.00628753 -0.0262285 0.00154471 0.008403 
0.0487785 -0.0429611 -0.184222 0.041441 -0.0221303 -0.177882 0.0320584 -0.0343275 -0.203354 
0.0469243 -0.0682131 -0.202835 0.0334295 -0.0506596 -0.178268 0.0388816 0.032977 -0.151567 
0.0302525 0.0107349 -0.212801 0.0549656 0.0243418 -0.155824 0.058296 -9.7715e-05 -0.209581 
0.0436114 -0.00809749 -0.267784 0.0465994 -0.0142797 -0.30538 0.0314912 -0.00866681 -0.325961 
0.0279782 -0.00800729 -0.325573 -0.000428483 -0.00630439 -0.294665 -0.018525 -0.0167044 -0.280146 
-0.0655696 -0.0270234 -0.239848 -0.0776938 -0.0397203 -0.2443 -0.113586 -0.0472686 -0.226894 
-0.114826 -0.0520218 -0.23418 -0.144147 -0.0512066 -0.213943 -0.130621 -0.0482577 -0.202371 
-0.140377 -0.0470603 -0.181897 -0.115866 -0.0463902 -0.173182 -0.129897 -0.0491381 -0.146536 
-0.125308 -0.0546107 -0.123805 -0.140554 -0.0555518 -0.0814754 -0.138297 -0.0573055 -0.0527083 
-0.128941 -0.0462175 -0.0180884 -0.12741 -0.0533997 -0.00259508 -0.113437 -0.0454803 0.0117126 
-0.112842 -0.0597384 0.0201021 -0.100334 -0.052538 0.0269366 -0.100183 -0.0730121 0.037225 
-0.0942483 -0.0685685 0.0393263 0.0259011 -0.0376048 -0.185127 0.00622559 -0.016417 -0.175211 
-0.00730683 0.00460895 -0.127647 -0.0269691 0.0200693 -0.117068 -0.0356626 0.0237227 -0.0811779 
-0.0605903 0.0114066 -0.0845536 -0.0639791 0.00729796 -0.058413 -0.0842081 -0.0016109 -0.0559385 
-0.0844479 0.00235885 -0.0250733 -0.108198 -0.00144287 -0.0161933 -0.104456 0.00499586 0.00459952 
-0.106034 0.00392658 0.009198 -0.0753451 0.0117352 0.0151169 -0.0562457 0.0129849 0.0146177 
-0.017684 0.0171189 0.0102411 -0.00439808 0.0165966 0.00807817 0.0312965 0.0150758 -0.000868374 
0.036794 0.0168261 -0.00212662 0.0665078 0.0134992 -0.00996242 0.0592498 0.0178419 -0.00781702 
0.081193 0.0125138 -0.014083 0.0660754 0.0170589 -0.0115067 0.0757514 0.0116005 -0.0145423 
0.0543526 0.014853 -0.0105393 0.0759072 -0.00680594 -0.198037 0.0771951 -0.0198598 -0.235379 
0.0625719 -0.0193338 -0.284518 0.0655212 -0.0214017 -0.299479 0.0460356 -0.015688 -0.319952 
0.0347168 -0.0200638 -0.311846 -0.00143718 -0.022783 -0.302948 -0.0326389 -0.0351918 -0.278131 
0.0316519 -0.00590007 -0.275262 0.0220063 -0.00908229 -0.299297 0.0918755 -0.0238681 -0.21713 
0.0917465 -0.0291413 -0.236662 0.0800154 -0.0272008 -0.269872 0.0825968 -0.0280054 -0.257781 
0.0723183 -0.0275571 -0.270085 0.0741158 -0.0305843 -0.241476 0.0612141 -0.0336484 -0.247143 
0.0553361 -0.0345714 -0.212455 0.0343256 -0.0386004 -0.213568 0.0129926 -0.0380145 -0.186325 
-0.0191605 -0.0432946 -0.204531 -0.0584686 -0.043557 -0.19415 -0.0945857 -0.0496329 -0.215281 
0.0188576 -0.00566679 -0.312401 0.000217694 0.00212576 -0.26715 -0.0245874 0.0236349 -0.060662 
-0.0246708 0.0153664 -0.041999 -0.02782 0.00688255 -0.0276579 -0.0400195 0.00328373 -0.0081714 
-0.0590143 0.00124102 0.00843527 -0.04794 0.00399513 0.0113878 -0.038478 0.00451787 0.00780081 
-0.00112388 0.00656171 -0.00759157 0.0167568 0.0147615 -0.0117829 0.038851 0.0186525 -0.0236458 
0.0403108 0.0281094 -0.0289391 0.0561799 0.0332004 -0.0410894 0.0705605 0.0408621 -0.0517834 
0.10686 0.0443214 -0.0671792 0.137334 0.044346 -0.0854861 0.158153 0.0412691 -0.0968043 
0.152439 0.0366981 -0.095284 -0.0155554 0.000828649 -0.249802 -0.0497 -0.00323808 -0.192921 